LAMMPS (12 Jun 2025)
KOKKOS mode with Kokkos version 4.6.0 is enabled (src/KOKKOS/kokkos.cpp:72)
  will use up to 1 GPU(s) per node
  using 1 OpenMP thread(s) per MPI task
package kokkos
package kokkos newton on neigh half
#===========SETUP=============#
units           metal
dimension       3
boundary        p p p
atom_style      atomic
#=============================#

#Timeout before end
timer timeout 23:55:00 every 1000
New timer settings: style=normal  mode=nosync  timeout=23:55:00

#Read the fullerite structure at ~15-16 GPa
read_data coord.lmp
Reading data file ...
  orthogonal box = (0 0 0) to (58.84 58.84 46.269)
  1 by 1 by 1 MPI processor grid
  reading atoms ...
  15360 atoms
  read_data CPU = 0.056 seconds

#Change to a triclinic box for shear
change_box all triclinic remap units box
Changing box ...
  triclinic box = (0 0 0) to (58.84 58.84 46.269) with tilt (0 0 0)

#Initiate both ACE and D2 as per Carbon ACE documentation
pair_style hybrid/overlay pace product table linear 30000
ACE version: 2023.11.25
Product evaluator is used
pair_coeff * * pace ./c_ace.yace C
Loading ./c_ace.yace
Total number of basis functions
	C: 20 (r=1) 455 (r>1)
Mapping LAMMPS atom type #1(C) -> ACE species type #0
pair_coeff * * table ./d2.table D2 6.0
Reading pair table potential file ./d2.table with DATE: 2021-12-16
WARNING: 8063 of 20000 force values in table D2 are inconsistent with -dE/dr.
WARNING:  Should only be flagged at inflection points (src/pair_table.cpp:469)
WARNING: 2386 of 20000 distance values in table 1e-06 with relative error
WARNING:  over D2 to re-computed values (src/pair_table.cpp:477)

mass 1 12.011

#0.2 fs good timestep for ACE - From benchmarks
timestep 0.0010

# #Compute the coordination value per atom
# compute coordatom all coord/atom cutoff 1.85
#
# #Calculate number of sp3 atoms
# variable sp3atom atom "c_coordatom == 4"
# group sp3g dynamic all every 100 var "sp3atom"
# variable sp3 equal "count(sp3g)"
#
# #Calculate the strain along the z-axis
# variable tmpx equal "lx"
# variable tmpy equal "ly"
# variable tmpz equal "lz"
# variable tmpxy equal "xy"
#
# variable L0x equal ${tmpz}
# variable L0y equal ${tmpy}
# variable L0z equal ${tmpz}
# variable L0xy equal ${tmpxy}
#
# variable strainx equal "(lx - v_L0x)/v_L0x"
# variable strainy equal "(ly - v_L0y)/v_L0y"
# variable strainz equal "(lz - v_L0z)/v_L0z"

#Lammps trajectory dump
#dump 1 all custom 1000 compress.lammpstrj id type xu yu zu c_coordatom c_peatom c_keatom
dump 1 all xtc 1000 compress.xtc
dump_modify 1 unwrap yes precision 10000

#Restart every 20 ps
#restart 100000 RE*

#Thermodynamic output (every 0.02 ps)
thermo 100
thermo_style custom step time temp pe ke vol density press pxx pyy pzz pxy pxz pyz lx ly lz xy xz yz cpu cpuremain
#thermo_style custom step time temp pe ke econserve vol density press pxx pyy pzz pxy pxz pyz lx ly lz xy xz yz v_strainx v_strainy v_strainz v_sp3
thermo_modify flush yes

#Start nph ensemble (atoms can move and N, P and H are constant)
velocity all create 300 34526 mom yes dist gaussian
#fix 1 all nvt temp 300 300 0.1 pchain 5
fix 1 all nve
#fix 1 all nph z 10000 150000 1.0 pchain 5 mtk yes nreset 10000 drag 1
fix 2 all temp/csvr 300 300 0.1 13467

#Run NVE for 1.0 ns
run 100000
Neighbor list info ...
  update: every = 1 steps, delay = 0 steps, check = yes
  max neighbors/atom: 2000, page size: 100000
  master list distance cutoff = 8
  ghost atom cutoff = 8
  binsize = 8, bins = 8 8 6
  2 neighbor lists, perpetual/occasional/extra = 2 0 0
  (1) pair pace, perpetual
      attributes: full, newton on, kokkos_device
      pair build: full/bin/kk/device
      stencil: full/bin/3d
      bin: kk/device
  (2) pair table, perpetual, half/full from (1)
      attributes: half, newton on, kokkos_device, cut 8
      pair build: halffull/newton/tri/kk/device
      stencil: none
      bin: none
Per MPI rank memory allocation (min/avg/max) = 4140 | 4140 | 4140 Mbytes
   Step          Time           Temp          PotEng         KinEng         Volume        Density         Press           Pxx            Pyy            Pzz            Pxy            Pxz            Pyz             Lx             Ly             Lz             Xy             Xz             Yz            CPU          CPULeft    
         0   0              300           -132456.12      595.59197      160190.01      1.9124232      25556.155      21182.341      21222.237      34263.887      67.493903     -310.17097     -272.99223      58.84          58.84          46.269         0              0              0              0              0            
       100   0.1            299.38475     -132455.94      594.37051      160190.01      1.9124232      23761.099      19411.696      19949.171      31922.43       296.78696     -1235.6552      200.61752      58.84          58.84          46.269         0              0              0              5.4089732      5403.5645    
       200   0.2            299.28995     -132452.9       594.1823       160190.01      1.9124232      24953.379      20376.602      20844.246      33639.29      -462.2325      -834.54971      465.32728      58.84          58.84          46.269         0              0              0              10.818465      5398.4141    
       300   0.3            300.6234      -132457.78      596.82961      160190.01      1.9124232      24565.264      20392.35       19661.128      33642.313     -510.5416      -427.63177      941.59511      58.84          58.84          46.269         0              0              0              16.221297      5390.8777    
       400   0.4            296.9386      -132453.9       589.51414      160190.01      1.9124232      24019.202      20383.822      18606.996      33066.787     -89.694905     -667.12441      239.84092      58.84          58.84          46.269         0              0              0              21.623793      5384.3245    
       500   0.5            294.88835     -132455.4       585.44377      160190.01      1.9124232      24199.747      20709.008      19824.567      32065.667     -390.96712     -779.08442     -167.93347      58.84          58.84          46.269         0              0              0              27.027304      5378.4335    
       600   0.6            296.47654     -132453.55      588.59682      160190.01      1.9124232      24203.758      20277.714      20206.714      32126.844      94.89708      -361.84456      502.22856      58.84          58.84          46.269         0              0              0              32.432898      5373.0502    
       700   0.7            297.62227     -132449.13      590.87145      160190.01      1.9124232      24589.776      20500.536      18882.065      34386.727      108.16319     -497.68852      570.26537      58.84          58.84          46.269         0              0              0              37.835547      5367.2427    
       800   0.8            300.18894     -132452.45      595.96708      160190.01      1.9124232      24276.858      20428.065      19309.39       33093.12      -712.50214     -506.8373       91.10595       58.84          58.84          46.269         0              0              0              43.239479      5361.6955    
       900   0.9            298.25144     -132447.12      592.12055      160190.01      1.9124232      24514.777      20879.397      19866.149      32798.785     -872.06577     -695.8281      -275.58858      58.84          58.84          46.269         0              0              0              48.643744      5356.2168    
      1000   1              299.03135     -132450.63      593.6689       160190.01      1.9124232      24774.78       21287.122      20002.894      33034.323      367.1325      -306.40682      265.69663      58.84          58.84          46.269         0              0              0              54.048162      5350.7681    
      1100   1.1            302.20942     -132452.02      599.97835      160190.01      1.9124232      24906.163      21298.905      19559.422      33860.162      210.87035     -782.34634      830.61752      58.84          58.84          46.269         0              0              0              59.450459      5345.1367    
      1200   1.2            298.46298     -132451.17      592.54051      160190.01      1.9124232      24072.983      18927.515      19667.964      33623.471     -1226.1768     -1471.0293      883.79187      58.84          58.84          46.269         0              0              0              64.858431      5340.0109    
      1300   1.3            301.07174     -132449.41      597.7197       160190.01      1.9124232      24052.695      20213.644      18884.56       33059.881     -278.93764     -954.17396      726.98313      58.84          58.84          46.269         0              0              0              70.265816      5334.797     
      1400   1.4            297.63527     -132443.62      590.89726      160190.01      1.9124232      24646.162      20652.672      20437.946      32847.869      1225.1108     -1335.0426      364.31936      58.84          58.84          46.269         0              0              0              75.671034      5329.4029    
      1500   1.5            301.35476     -132449.07      598.28159      160190.01      1.9124232      23064.226      18884.933      18576.968      31730.778     -939.65438     -1151.3521     -54.555389      58.84          58.84          46.269         0              0              0              81.072348      5323.7509    
      1600   1.6            301.86778     -132448.07      599.30009      160190.01      1.9124232      23987.569      19804.66       19199.59       32958.457     -1371.4652     -453.93838     -44.214938      58.84          58.84          46.269         0              0              0              86.472116      5318.0352    
      1700   1.7            302.84382     -132452.62      601.23783      160190.01      1.9124232      24636.767      21331.186      19242.355      33336.761      553.66238      55.958098      95.923641      58.84          58.84          46.269         0              0              0              91.872023      5312.3646    
      1800   1.8            300.48545     -132451.07      596.55573      160190.01      1.9124232      23575.394      21319.244      17413.661      31993.276      857.48524     -219.23388     -491.7823       58.84          58.84          46.269         0              0              0              97.27745       5307.0253    
      1900   1.9            300.12346     -132452.1       595.83707      160190.01      1.9124232      25065.156      21962.849      19746.607      33486.012     -405.65543     -795.42077      627.05502      58.84          58.84          46.269         0              0              0              102.67955      5301.5076    
      2000   2              302.35747     -132452.77      600.27226      160190.01      1.9124232      23817.962      20275.085      18802.362      32376.438      321.96816     -424.24716      840.28876      58.84          58.84          46.269         0              0              0              108.08232      5296.0336    
      2100   2.1            296.93135     -132451.6       589.49976      160190.01      1.9124232      24286.538      20722.923      19317.239      32819.453      343.09449     -686.85043     -119.40998      58.84          58.84          46.269         0              0              0              113.48384      5290.5087    
      2200   2.2            297.84707     -132454.43      591.31775      160190.01      1.9124232      24505.705      19621.535      20045.054      33850.527     -9.4135498     -708.06106     -593.62344      58.84          58.84          46.269         0              0              0              118.88598      5285.0221    
      2300   2.3            299.89202     -132452.84      595.3776       160190.01      1.9124232      24562.716      20200.97       20457.093      33030.085     -1122.9206     -321.24958     -494.90989      58.84          58.84          46.269         0              0              0              124.28796      5279.5366    
      2400   2.4            298.57938     -132454.71      592.77159      160190.01      1.9124232      24805.814      20475.173      19553.569      34388.701      19.456568      52.473482      201.22825      58.84          58.84          46.269         0              0              0              129.69187      5274.1359    
      2500   2.5            298.22208     -132449.5       592.06226      160190.01      1.9124232      24001.746      20215.22       17858.312      33931.706      749.21644      10.943909      428.88239      58.84          58.84          46.269         0              0              0              135.09532      5268.7176    
      2600   2.6            301.6709      -132453.41      598.90921      160190.01      1.9124232      24236.52       20635.638      18945.603      33128.318      276.53361     -250.0489       373.2656       58.84          58.84          46.269         0              0              0              140.49601      5263.1968    
      2700   2.7            300.28287     -132447.94      596.15355      160190.01      1.9124232      24227.793      20668.705      19629.5        32385.173     -714.39781     -514.29384     -315.99942      58.84          58.84          46.269         0              0              0              145.89914      5257.7726    
      2800   2.8            302.913       -132454.33      601.37517      160190.01      1.9124232      24409.534      21002.722      18870.729      33355.151     -289.79507     -49.474918      14.882564      58.84          58.84          46.269         0              0              0              151.30512      5252.4492    
      2900   2.9            298.17697     -132450.28      591.97269      160190.01      1.9124232      24399.489      20711.737      19184.698      33302.031      776.06847      106.65188     -280.22167      58.84          58.84          46.269         0              0              0              156.70525      5246.9242    
      3000   3              299.77408     -132451.67      595.14345      160190.01      1.9124232      23160.743      20853.86       17052.248      31576.123     -1120.8537     -437.16376      894.40326      58.84          58.84          46.269         0              0              0              162.10618      5241.4331    
      3100   3.1            302.39205     -132455.14      600.34091      160190.01      1.9124232      23819.186      21043.5        18167.213      32246.846     -1411.2993     -557.45466      1324.1488      58.84          58.84          46.269         0              0              0              167.50878      5236.0004    
      3200   3.2            301.99483     -132453.31      599.55232      160190.01      1.9124232      25791.157      21546.331      20040.901      35786.239     -567.08526     -1013.9568      1652.8955      58.84          58.84          46.269         0              0              0              172.9088       5230.4911    
      3300   3.3            299.74147     -132446.66      595.0787       160190.01      1.9124232      23134.169      19868.045      17655.051      31879.411      725.61976     -573.81016      774.67911      58.84          58.84          46.269         0              0              0              178.30943      5225.0065    
      3400   3.4            302.73247     -132453.46      601.01676      160190.01      1.9124232      24539.37       21680.932      19589.119      32348.059     -335.08039      382.78789      1130.8585      58.84          58.84          46.269         0              0              0              183.71202      5219.5826    
      3500   3.5            300.07681     -132449.67      595.74447      160190.01      1.9124232      23689.304      19839.132      18710.513      32518.267     -1314.0319      100.28106      97.126903      58.84          58.84          46.269         0              0              0              189.11349      5214.1292    
      3600   3.6            301.85384     -132451.93      599.27241      160190.01      1.9124232      23783.734      20107.469      18645.716      32598.018     -671.87191     -143.81022      953.99561      58.84          58.84          46.269         0              0              0              194.51672      5208.7254    
      3700   3.7            301.16548     -132456.15      597.9058       160190.01      1.9124232      23939.712      19471.304      18727.194      33620.637      235.21708     -63.822748      979.46429      58.84          58.84          46.269         0              0              0              199.91023      5203.069     
      3800   3.8            301.97497     -132455.17      599.51289      160190.01      1.9124232      22814.828      18832.913      17494.829      32116.742     -379.31393      285.14769      0.13618834     58.84          58.84          46.269         0              0              0              205.30633      5197.4919    
      3900   3.9            300.63377     -132451.48      596.8502       160190.01      1.9124232      25661.312      21921.681      20539.125      34523.13      -388.54006      238.25658      141.58146      58.84          58.84          46.269         0              0              0              210.70003      5191.8648    
      4000   4              298.67377     -132447.49      592.95899      160190.01      1.9124232      22922.211      18874.431      18842.191      31050.011     -393.18692     -586.4006       793.16707      58.84          58.84          46.269         0              0              0              216.09613      5186.3071    
      4100   4.1            300.30924     -132449.88      596.2059       160190.01      1.9124232      24295.149      20412.348      19924.689      32548.409      180.90576     -582.1606      -21.160085      58.84          58.84          46.269         0              0              0              221.49992      5180.9372    
      4200   4.2            300.91366     -132456.42      597.40587      160190.01      1.9124232      24258.905      20567.941      18307.536      33901.239      542.08862     -388.34293      125.34882      58.84          58.84          46.269         0              0              0              226.90041      5175.4903    
      4300   4.3            297.99588     -132451.63      591.61318      160190.01      1.9124232      22816.604      18860.633      17958.351      31630.828      406.74681      139.22394      570.82151      58.84          58.84          46.269         0              0              0              232.30165      5170.0624    
      4400   4.4            301.45376     -132456.41      598.47813      160190.01      1.9124232      25622.249      23257.868      19839.901      33768.979     -526.40058     -1167.6336      1045.2034      58.84          58.84          46.269         0              0              0              237.70305      5164.6391    
      4500   4.5            301.07195     -132452.17      597.72011      160190.01      1.9124232      24198.55       20923.881      19084.525      32587.244     -810.84511     -411.51793      2001.5138      58.84          58.84          46.269         0              0              0              243.10255      5159.1763    
      4600   4.6            300.72066     -132457.12      597.02271      160190.01      1.9124232      23902.097      20016.796      19159.808      32529.687     -133.4506      -440.51827      922.58832      58.84          58.84          46.269         0              0              0              248.50848      5153.8498    
      4700   4.7            299.36039     -132454.72      594.32214      160190.01      1.9124232      23872.322      20782.687      18600.321      32233.959     -211.53577     -569.57532      704.01497      58.84          58.84          46.269         0              0              0              253.91244      5148.48      
      4800   4.8            297.56794     -132453.91      590.76358      160190.01      1.9124232      24424.907      22071.562      18213.065      32990.096     -71.843518      604.74185      18.248783      58.84          58.84          46.269         0              0              0              259.3142       5143.065     
      4900   4.9            298.44911     -132451.76      592.51297      160190.01      1.9124232      24165.088      21243.625      17977.485      33274.155      26.279249     -494.98766      315.84077      58.84          58.84          46.269         0              0              0              264.71975      5137.7242    
      5000   5              301.50641     -132455.64      598.58266      160190.01      1.9124232      24551.113      20901.607      18578.112      34173.621     -45.507769     -411.93421      1407.1449      58.84          58.84          46.269         0              0              0              270.12268      5132.331     
      5100   5.1            301.28187     -132455.67      598.13688      160190.01      1.9124232      23939.445      20344.424      19484.699      31989.213     -955.26579      229.55499      684.47163      58.84          58.84          46.269         0              0              0              275.52593      5126.9433    
      5200   5.2            299.95864     -132448.02      595.50985      160190.01      1.9124232      25466.888      21105.461      20729.586      34565.617     -886.56609     -350.32795      1108.354       58.84          58.84          46.269         0              0              0              280.93124      5121.5926    
      5300   5.3            300.36057     -132446.58      596.30781      160190.01      1.9124232      23001.183      20038.311      18391.441      30573.798      15.935966     -1213.3285      371.44722      58.84          58.84          46.269         0              0              0              286.33201      5116.1587    
      5400   5.4            301.92864     -132447.6       599.42091      160190.01      1.9124232      24208.021      21109.58       18795.668      32718.816      279.72814     -1012.3135      601.67823      58.84          58.84          46.269         0              0              0              291.7378       5110.814     
      5500   5.5            301.86748     -132447.65      599.29948      160190.01      1.9124232      23871.752      20458.673      18566.876      32589.706     -31.2408       -787.80478      350.23571      58.84          58.84          46.269         0              0              0              297.13925      5105.3926    
      5600   5.6            302.66812     -132448.39      600.88902      160190.01      1.9124232      23170.952      20439.707      18268.001      30805.147     -377.34902     -1262.541       1.1023714      58.84          58.84          46.269         0              0              0              302.54735      5100.0839    
      5700   5.7            303.73003     -132449.39      602.99722      160190.01      1.9124232      24851.74       20840.561      20074.205      33640.454     -291.3801      -222.28321      109.87374      58.84          58.84          46.269         0              0              0              307.98355      5095.2366    
      5800   5.8            299.85148     -132448.5       595.29712      160190.01      1.9124232      23747.47       19566.481      18676.663      32999.265     -67.919164      291.5066      -461.93593      58.84          58.84          46.269         0              0              0              313.39966      5090.0427    
      5900   5.9            300.85186     -132446.27      597.28316      160190.01      1.9124232      23321.459      19845.563      18297.488      31821.326     -1601.9809      258.89385      121.82631      58.84          58.84          46.269         0              0              0              318.83112      5085.0862    
      6000   6              302.41184     -132450.51      600.38021      160190.01      1.9124232      23200.541      19771.589      18441.946      31388.088     -964.63459     -683.64145      266.18091      58.84          58.84          46.269         0              0              0              324.25077      5079.9288    
      6100   6.1            297.70904     -132448.99      591.04371      160190.01      1.9124232      24687.667      21834.4        19379.962      32848.638      910.04964     -1003.0764      356.1038       58.84          58.84          46.269         0              0              0              329.6874       5075.024     
      6200   6.2            299.66346     -132457.05      594.92384      160190.01      1.9124232      23037.156      19320.128      17887.534      31903.807      114.29971     -81.52598       137.39186      58.84          58.84          46.269         0              0              0              335.10534      5069.8195    
      6300   6.3            300.16481     -132454.68      595.91917      160190.01      1.9124232      25407.283      20318.391      20505.873      35397.585     -1353.0691      1184.3719      533.31027      58.84          58.84          46.269         0              0              0              340.54231      5064.8912    
      6400   6.4            303.16836     -132454.99      601.88214      160190.01      1.9124232      23801.303      19880.758      19949.695      31573.455     -679.0518       578.42766      1133.5362      58.84          58.84          46.269         0              0              0              345.96023      5059.6684    
      6500   6.5            300.90425     -132452.98      597.38718      160190.01      1.9124232      24960.943      22484.169      20489.218      31909.44       1290.8811     -512.46624      34.907842      58.84          58.84          46.269         0              0              0              351.35915      5054.1662    
      6600   6.6            299.87872     -132450.73      595.35118      160190.01      1.9124232      24036.01       20495.752      19696.38       31915.896     -162.88896     -912.72834     -793.40069      58.84          58.84          46.269         0              0              0              356.75773      5048.6624    
      6700   6.7            301.43397     -132455.42      598.43883      160190.01      1.9124232      22718.239      17654.393      18083.402      32416.922     -38.759036     -642.97859     -756.46721      58.84          58.84          46.269         0              0              0              362.15236      5043.1068    
      6800   6.8            300.27073     -132450.3       596.12944      160190.01      1.9124232      25097.095      21192.699      21072.943      33025.643     -239.3615      -1040.842      -477.14433      58.84          58.84          46.269         0              0              0              367.55071      5037.6068    
      6900   6.9            300.90052     -132450.12      597.37978      160190.01      1.9124232      22561.895      19572.717      18330.483      29782.484      282.02296     -133.84499     -127.42315      58.84          58.84          46.269         0              0              0              372.94481      5032.0524    
      7000   7              300.3035      -132446.46      596.19452      160190.01      1.9124232      24456.302      20317.286      19555.351      33496.27      -16.1722        462.07651      119.37847      58.84          58.84          46.269         0              0              0              378.34286      5026.5551    
      7100   7.1            298.4992      -132445.56      592.61243      160190.01      1.9124232      23306.614      19459.882      19043.353      31416.608     -784.88692      1123.684      -788.58442      58.84          58.84          46.269         0              0              0              383.73878      5021.0327    
      7200   7.2            301.44643     -132459.79      598.46358      160190.01      1.9124232      25102.475      22375.932      21397.591      31533.902     -126.27751      28.830481      249.81527      58.84          58.84          46.269         0              0              0              389.13312      5015.4936    
      7300   7.3            296.78692     -132452.43      589.21301      160190.01      1.9124232      24443.809      21042.243      19626.506      32662.678      548.93106     -388.64741      287.74346      58.84          58.84          46.269         0              0              0              394.53329      5010.0323    
      7400   7.4            298.7873      -132459.17      593.1844       160190.01      1.9124232      23381.378      20218.505      18062.848      31862.781     -505.94164     -151.92225      141.52709      58.84          58.84          46.269         0              0              0              399.93255      5004.5613    
      7500   7.5            299.5787      -132457.5       594.75555      160190.01      1.9124232      23292.642      20461.864      18239.203      31176.857     -323.28846      256.80402      332.23114      58.84          58.84          46.269         0              0              0              405.33276      4999.1041    
      7600   7.6            296.75349     -132451.32      589.14665      160190.01      1.9124232      24720.089      21430.124      19588.307      33141.835      216.37411      563.20276      407.23419      58.84          58.84          46.269         0              0              0              410.72946      4993.6056    
      7700   7.7            299.02343     -132454.76      593.65318      160190.01      1.9124232      23770.565      20517.18       19585.107      31209.409      329.47017     -296.61258     -150.54711      58.84          58.84          46.269         0              0              0              416.12658      4988.1147    
      7800   7.8            300.04252     -132453.07      595.67639      160190.01      1.9124232      23982.024      19532.324      21270.715      31143.033     -774.66902     -768.45647     -302.64774      58.84          58.84          46.269         0              0              0              421.5208       4982.5921    
      7900   7.9            298.41737     -132451.56      592.44997      160190.01      1.9124232      24212.871      20087.581      20521.278      32029.754     -229.28774     -278.41195     -135.78072      58.84          58.84          46.269         0              0              0              426.92117      4977.1443    
      8000   8              299.94478     -132457.79      595.48233      160190.01      1.9124232      24273.362      20735.29       19846.042      32238.753     -370.35078     -1233.3551     -553.19334      58.84          58.84          46.269         0              0              0              432.31592      4971.6331    
      8100   8.1            299.13265     -132447.58      593.87002      160190.01      1.9124232      23853.643      20899.908      19631.076      31029.945      362.32915     -1148.0474      114.11061      58.84          58.84          46.269         0              0              0              437.71429      4966.1658    
      8200   8.2            303.3775      -132451.32      602.29734      160190.01      1.9124232      24506.676      21883.75       20798.754      30837.524      246.28654     -501.29916      1297.5307      58.84          58.84          46.269         0              0              0              443.11473      4960.7234    
      8300   8.3            301.49123     -132448.82      598.55253      160190.01      1.9124232      23850.177      20374.305      18746.917      32429.309     -701.59368      369.44018      797.3          58.84          58.84          46.269         0              0              0              448.50895      4955.2134    
      8400   8.4            302.05385     -132457.79      599.66948      160190.01      1.9124232      25145.572      20962.128      19924.578      34550.009     -502.43118     -237.51473     -728.36127      58.84          58.84          46.269         0              0              0              453.90632      4949.7404    
      8500   8.5            298.86387     -132453.4       593.3364       160190.01      1.9124232      23850.858      19999.971      20673.342      30879.262     -267.39473     -851.49563     -11.856085      58.84          58.84          46.269         0              0              0              459.31056      4944.3431    
      8600   8.6            298.89427     -132460.4       593.39675      160190.01      1.9124232      23291.604      19799.589      19499.381      30575.844     -476.63533     -437.59538     -194.40921      58.84          58.84          46.269         0              0              0              464.70887      4938.8827    
      8700   8.7            296.57289     -132457.44      588.78811      160190.01      1.9124232      24907          20736.307      20222.331      33762.362     -887.96412     -837.06452     -315.01084      58.84          58.84          46.269         0              0              0              470.11734      4933.5302    
      8800   8.8            297.1289      -132456.09      589.89196      160190.01      1.9124232      24271.273      20465.688      19848.145      32499.987     -70.194707     -134.65787     -470.32219      58.84          58.84          46.269         0              0              0              475.51463      4928.0608    
      8900   8.9            297.84339     -132459.05      591.31044      160190.01      1.9124232      24939.918      21508.484      19770.276      33540.995     -20.240817     -583.09221     -687.54006      58.84          58.84          46.269         0              0              0              480.92115      4922.6873    
      9000   9              298.80508     -132455.56      593.21968      160190.01      1.9124232      23686.291      19183.475      20196.254      31679.143     -996.29765     -921.59323     -628.98748      58.84          58.84          46.269         0              0              0              486.31932      4917.2287    
      9100   9.1            298.89226     -132456.13      593.39276      160190.01      1.9124232      24283.574      20268.949      20552.187      32029.586     -1197.3291      60.83219       900.56831      58.84          58.84          46.269         0              0              0              491.71521      4911.7486    
      9200   9.2            302.38413     -132455.61      600.3252       160190.01      1.9124232      23649.041      19726.371      19666.781      31553.971      1072.7416      43.113549      405.27675      58.84          58.84          46.269         0              0              0              497.1087       4906.2467    
      9300   9.3            301.49006     -132455.29      598.55019      160190.01      1.9124232      24154.48       20307.109      19340.71       32815.623      368.85851     -423.06539     -1.2247154      58.84          58.84          46.269         0              0              0              502.50397      4900.7646    
      9400   9.4            295.30605     -132450.08      586.27304      160190.01      1.9124232      23112.444      19214.218      19254.288      30868.825     -971.91584     -663.21975      114.96333      58.84          58.84          46.269         0              0              0              507.90204      4895.3111    
      9500   9.5            299.91754     -132448.22      595.42826      160190.01      1.9124232      25699.776      21734.97       21880.588      33483.772      38.649853     -833.78314      280.93211      58.84          58.84          46.269         0              0              0              513.29681      4889.8275    
      9600   9.6            300.76457     -132452.06      597.10988      160190.01      1.9124232      22996.573      19515.175      17608.042      31866.502      1122.5725      569.17443     -243.86115      58.84          58.84          46.269         0              0              0              518.69369      4884.3656    
      9700   9.7            299.50649     -132452.25      594.6122       160190.01      1.9124232      23975.783      19368.858      19112.868      33445.622      136.55617      391.50491     -187.34017      58.84          58.84          46.269         0              0              0              524.0912       4878.9109    
      9800   9.8            302.69199     -132455.91      600.93639      160190.01      1.9124232      23207.913      19636.803      19905.276      30081.66      -1065.3829      354.19955     -904.82881      58.84          58.84          46.269         0              0              0              529.4912       4873.4803    
      9900   9.9            300.73506     -132453.49      597.05129      160190.01      1.9124232      24381.497      20900.306      19659.51       32584.676      170.45203      243.93214      372.63957      58.84          58.84          46.269         0              0              0              534.89056      4868.0444    
     10000   10             300.01759     -132456.25      595.6269       160190.01      1.9124232      23723.981      19699.016      18575.055      32897.871      484.14011      348.65912      926.41463      58.84          58.84          46.269         0              0              0              540.28572      4862.5715    
     10100   10.1           298.64662     -132453.38      592.9051       160190.01      1.9124232      24944.713      21716.076      20703.33       32414.733      394.51863     -429.0751       86.486528      58.84          58.84          46.269         0              0              0              545.68469      4857.1341    
     10200   10.2           300.85731     -132458.2       597.29399      160190.01      1.9124232      23673.685      20046.96       19789.915      31184.181      512.92642     -1028.1077     -319.26465      58.84          58.84          46.269         0              0              0              551.07876      4851.6542    
     10300   10.3           302.29198     -132452.56      600.14225      160190.01      1.9124232      23297.15       19440.174      18877.991      31573.284      247.37037     -1130.4158     -425.87039      58.84          58.84          46.269         0              0              0              556.47282      4846.1759    
     10400   10.4           300.24481     -132454.97      596.07799      160190.01      1.9124232      23298.267      19118.286      18777.948      31998.567      815.99454     -190.97507     -811.61546      58.84          58.84          46.269         0              0              0              561.86669      4840.6976    
     10500   10.5           302.28183     -132455.57      600.12211      160190.01      1.9124232      23964.214      20774.014      19420.274      31698.353     -42.555364      279.51435     -547.92592      58.84          58.84          46.269         0              0              0              567.26682      4835.2743    
     10600   10.6           301.5179      -132453         598.60547      160190.01      1.9124232      23356.749      20258.148      18731.611      31080.487     -673.88777      565.05137      133.89535      58.84          58.84          46.269         0              0              0              572.66719      4829.8535    
     10700   10.7           298.1221      -132443.35      591.86375      160190.01      1.9124232      25437.858      21483.698      21670.214      33159.661     -21.944174      486.24915     -193.32723      58.84          58.84          46.269         0              0              0              578.06708      4824.429     
     10800   10.8           301.17188     -132451.26      597.91851      160190.01      1.9124232      23734.128      19057.838      20020.832      32123.714      370.0147       63.704933     -730.06463      58.84          58.84          46.269         0              0              0              583.46772      4819.0112    
     10900   10.9           301.44183     -132449.09      598.45444      160190.01      1.9124232      22983.163      19352.368      17286.113      32311.008      39.495274     -20.830471     -124.28656      58.84          58.84          46.269         0              0              0              588.86724      4813.5845    
     11000   11             299.86276     -132450.02      595.3195       160190.01      1.9124232      24392.271      19895.38       20152.353      33129.079     -883.89559     -248.39735      360.09602      58.84          58.84          46.269         0              0              0              594.2668       4808.1586    
     11100   11.1           300.61338     -132457.06      596.80971      160190.01      1.9124232      23109.397      18576.317      18940.86       31811.014      489.10979     -642.07439      637.65625      58.84          58.84          46.269         0              0              0              599.66715      4802.7396    
     11200   11.2           302.55875     -132458.21      600.67188      160190.01      1.9124232      24841.008      21889.557      19928.199      32705.267     -45.622627     -343.87397     -121.20584      58.84          58.84          46.269         0              0              0              605.06708      4797.3176    
     11300   11.3           301.76352     -132454.63      599.09309      160190.01      1.9124232      23739.981      20354.618      18169.443      32695.881     -1047.1373     -621.73074     -245.65849      58.84          58.84          46.269         0              0              0              610.46254      4791.8608    
     11400   11.4           301.83597     -132456.16      599.23693      160190.01      1.9124232      23655.397      20434.498      18983.809      31547.885     -651.72498      1048.2047     -846.44429      58.84          58.84          46.269         0              0              0              615.8608       4786.4269    
     11500   11.5           300.21278     -132454.24      596.01441      160190.01      1.9124232      24795.75       20397.098      20937.283      33052.869      334.0595       944.20392     -400.08977      58.84          58.84          46.269         0              0              0              621.25456      4780.959     
     11600   11.6           302.34754     -132455.18      600.25255      160190.01      1.9124232      22617.216      18771.587      17298.493      31781.57       334.51606     -4.4792204     -1.8448934      58.84          58.84          46.269         0              0              0              626.65038      4775.5081    
     11700   11.7           298.79442     -132459.19      593.19852      160190.01      1.9124232      24097.915      20187.643      20043.548      32062.554     -501.47799     -315.88907      508.73568      58.84          58.84          46.269         0              0              0              632.04922      4770.0809    
     11800   11.8           296.51992     -132455.19      588.68295      160190.01      1.9124232      24120.471      21267.99       19750.596      31342.828      157.26058     -94.762312      495.15376      58.84          58.84          46.269         0              0              0              637.44876      4764.6594    
     11900   11.9           296.59647     -132459.24      588.83493      160190.01      1.9124232      23661.679      20284.794      18946.61       31753.632     -777.47853      270.13532     -501.41525      58.84          58.84          46.269         0              0              0              642.8454       4759.2168    
     12000   12             297.89911     -132455.76      591.42107      160190.01      1.9124232      23804.887      20163.555      18633.807      32617.3       -17.374853      561.43013      10.663604      58.84          58.84          46.269         0              0              0              648.24564      4753.8014    
     12100   12.1           304.43755     -132456.91      604.40188      160190.01      1.9124232      24380.468      21044.295      19523.644      32573.466      211.9132       649.81809     -618.22873      58.84          58.84          46.269         0              0              0              653.64258      4748.3622    
     12200   12.2           299.65265     -132450.2       594.90238      160190.01      1.9124232      23084.962      19648.109      18371.899      31234.879      472.48971      52.83764      -1003.7013      58.84          58.84          46.269         0              0              0              659.04255      4742.9456    
     12300   12.3           300.24659     -132457.23      596.08153      160190.01      1.9124232      22980.163      18640.664      18312.761      31987.064     -516.59731     -346.41951      150.58265      58.84          58.84          46.269         0              0              0              664.4399       4737.5105    
     12400   12.4           300.88523     -132455.65      597.34942      160190.01      1.9124232      24713.417      20906.873      20131.732      33101.646      50.47675      -807.44555      91.13868       58.84          58.84          46.269         0              0              0              669.83989      4732.0947    
     12500   12.5           302.4818      -132452.49      600.51911      160190.01      1.9124232      23541.802      20438.797      18684.056      31502.555      1242.8758     -859.05481     -632.10115      58.84          58.84          46.269         0              0              0              675.23667      4726.6567    
     12600   12.6           299.12666     -132451.61      593.85812      160190.01      1.9124232      24292.273      21433.718      19909.172      31533.93       48.489924      297.58915      336.43142      58.84          58.84          46.269         0              0              0              680.63215      4721.2103    
     12700   12.7           298.98255     -132453.42      593.57202      160190.01      1.9124232      22914.479      18719.788      19383.394      30640.256     -1150.5525      857.67638      141.68002      58.84          58.84          46.269         0              0              0              686.0326       4715.7989    
     12800   12.8           298.75557     -132449.59      593.1214       160190.01      1.9124232      24447.209      19439.605      20272.166      33629.856      385.88745      517.67138     -423.75026      58.84          58.84          46.269         0              0              0              691.43256      4710.3843    
     12900   12.9           298.76948     -132455.6       593.14901      160190.01      1.9124232      23115.471      18642.029      19395.683      31308.703      1736.3479      156.49841     -839.04481      58.84          58.84          46.269         0              0              0              696.83147      4704.9629    
     13000   13             301.17019     -132449.12      597.91516      160190.01      1.9124232      25403.59       21358.818      21853.69       32998.261     -1003.6747     -567.53976     -803.0616       58.84          58.84          46.269         0              0              0              702.23312      4699.5601    
     13100   13.1           302.73152     -132454.92      601.01488      160190.01      1.9124232      24510.554      21636.235      19609.917      32285.511     -317.92048     -998.47839     -1495.9728      58.84          58.84          46.269         0              0              0              707.63196      4694.1387    
     13200   13.2           303.31356     -132453.35      602.1704       160190.01      1.9124232      22895.645      19622.317      17969.568      31095.048      1422.6143     -1507.1549     -724.87977      58.84          58.84          46.269         0              0              0              713.03043      4688.7152    
     13300   13.3           302.5071      -132454.17      600.56934      160190.01      1.9124232      23597.415      19408.177      18868.969      32515.099      794.77395     -973.10995      348.76773      58.84          58.84          46.269         0              0              0              718.42569      4683.2713    
     13400   13.4           299.89322     -132457.01      595.37997      160190.01      1.9124232      23815.44       19800.527      20237.692      31408.102     -528.3355      -374.57639     -116.27372      58.84          58.84          46.269         0              0              0              723.82477      4677.8526    
     13500   13.5           298.05575     -132451.7       591.73204      160190.01      1.9124232      23925.457      19991.684      19425.706      32358.981     -1734.7411      445.87832      758.54753      58.84          58.84          46.269         0              0              0              729.22161      4672.42      
     13600   13.6           297.53269     -132460.46      590.6936       160190.01      1.9124232      22731.049      19048.572      17506.328      31638.247      1365.4409      273.44975     -134.07546      58.84          58.84          46.269         0              0              0              734.61867      4666.9892    
     13700   13.7           298.1296      -132456.93      591.87865      160190.01      1.9124232      24080.697      20055.098      19549.162      32637.831      1433.3195     -652.95284     -698.87072      58.84          58.84          46.269         0              0              0              740.01875      4661.5779    
     13800   13.8           297.11117     -132452.46      589.85675      160190.01      1.9124232      24586.168      21970.887      19376.555      32411.062     -932.98244      172.66489      200.28716      58.84          58.84          46.269         0              0              0              745.4188       4656.1667    
     13900   13.9           298.11705     -132449.46      591.85374      160190.01      1.9124232      22931.064      19342.87       17463.516      31986.807     -870.01145      947.68624     -226.72897      58.84          58.84          46.269         0              0              0              750.81856      4650.7538    
     14000   14             299.95532     -132450.77      595.50327      160190.01      1.9124232      24183.75       18730.76       20656.238      33164.254      1487.748      -758.58962     -306.65728      58.84          58.84          46.269         0              0              0              756.21865      4645.3432    
     14100   14.1           299.85807     -132455.09      595.3102       160190.01      1.9124232      23693.05       19990.717      20304.753      30783.68       1409.4091     -149.24464      140.71892      58.84          58.84          46.269         0              0              0              761.61878      4639.9329    
     14200   14.2           303.42482     -132457.38      602.39129      160190.01      1.9124232      24499.478      21945.195      20085.249      31467.989     -765.45111      542.5618       730.85934      58.84          58.84          46.269         0              0              0              767.01861      4634.5209    
     14300   14.3           300.87407     -132452.41      597.32726      160190.01      1.9124232      23288.747      19225.719      19048.002      31592.521     -927.80505      493.79763      459.34991      58.84          58.84          46.269         0              0              0              772.41851      4629.1095    
     14400   14.4           303.29327     -132450.14      602.13012      160190.01      1.9124232      23145.86       18279.072      18754.773      32403.734     -288.49626     -211.65862      258.38529      58.84          58.84          46.269         0              0              0              777.81835      4623.698     
     14500   14.5           301.90972     -132445.44      599.38335      160190.01      1.9124232      24259.419      20821.289      19705.945      32251.023      236.34785     -531.35004      108.54239      58.84          58.84          46.269         0              0              0              783.21289      4618.2553    
     14600   14.6           301.92855     -132452.99      599.42074      160190.01      1.9124232      22903.332      19763.716      18482.118      30464.163     -924.43383     -438.00779     -497.94358      58.84          58.84          46.269         0              0              0              788.61289      4612.8453    
     14700   14.7           302.72899     -132450.24      601.00984      160190.01      1.9124232      23501.255      20253.157      18242.465      32008.144     -68.447006     -1048.2291      455.37842      58.84          58.84          46.269         0              0              0              794.00792      4607.4065    
     14800   14.8           299.16434     -132449.77      593.93292      160190.01      1.9124232      23253.781      20288.698      18536.08       30936.567      488.79652     -286.34468     -401.27935      58.84          58.84          46.269         0              0              0              799.40732      4601.9935    
     14900   14.9           302.37996     -132454.08      600.31691      160190.01      1.9124232      24791.77       22168.07       20056.628      32150.614      191.1905       336.44142      670.36488      58.84          58.84          46.269         0              0              0              804.80641      4596.5789    
     15000   15             302.36137     -132458.4       600.28002      160190.01      1.9124232      22629.331      19096.527      17044.248      31747.218      633.44496      608.06363      545.05883      58.84          58.84          46.269         0              0              0              810.20091      4591.1385    
     15100   15.1           303.19428     -132450.84      601.9336       160190.01      1.9124232      23691.276      20237.305      18135.028      32701.496     -175.20252      308.25398     -375.96503      58.84          58.84          46.269         0              0              0              815.60107      4585.7305    
     15200   15.2           302.39926     -132452.67      600.35524      160190.01      1.9124232      24257.811      20295.055      19815.351      32663.028      275.14579      209.89597     -299.61525      58.84          58.84          46.269         0              0              0              821.00073      4580.3199    
     15300   15.3           298.83251     -132450.45      593.27414      160190.01      1.9124232      22709.338      18817.334      19279.861      30030.819      1034.3746     -43.674438      187.0376       58.84          58.84          46.269         0              0              0              826.39813      4574.8969    
     15400   15.4           299.7502      -132451.99      595.09604      160190.01      1.9124232      24365.492      21794.462      19315.663      31986.352      156.78127     -1515.4757     -112.25939      58.84          58.84          46.269         0              0              0              831.79771      4569.4861    
     15500   15.5           300.41575     -132451.66      596.41737      160190.01      1.9124232      23852.054      20445.823      17627.703      33482.636     -489.24629     -1181.446      -921.79596      58.84          58.84          46.269         0              0              0              837.19755      4564.077     
     15600   15.6           300.70697     -132453.05      596.99553      160190.01      1.9124232      23381.281      19021.289      19382.963      31739.591      404.86827     -789.2281       643.41516      58.84          58.84          46.269         0              0              0              842.59514      4558.6558    
     15700   15.7           300.4468      -132455.97      596.479        160190.01      1.9124232      24290.593      20611.878      20989.685      31270.214      761.32987     -479.886        452.24928      58.84          58.84          46.269         0              0              0              847.99584      4553.2516    
     15800   15.8           299.24043     -132453.25      594.08399      160190.01      1.9124232      22429.6        18724.092      17733.355      30831.352      514.10439     -1119.3863      122.71208      58.84          58.84          46.269         0              0              0              853.3942       4547.8349    
     15900   15.9           299.67964     -132451.05      594.95595      160190.01      1.9124232      24049.938      20687.258      18364.281      33098.274     -17.949468      560.89224      392.16959      58.84          58.84          46.269         0              0              0              858.78888      4542.399     
     16000   16             298.71746     -132450.9       593.04574      160190.01      1.9124232      23857.569      20887.647      17797.368      32887.691     -264.77633      247.62528      113.82009      58.84          58.84          46.269         0              0              0              864.18416      4536.9668    
     16100   16.1           299.43108     -132456.45      594.4625       160190.01      1.9124232      22644.69       19363.192      18489.212      30081.665      706.05172      263.81555      181.14214      58.84          58.84          46.269         0              0              0              869.58292      4531.5532    
     16200   16.2           296.32462     -132454.58      588.29522      160190.01      1.9124232      24646.01       20146.285      21095.161      32696.584      1531.5751     -181.96818      139.29547      58.84          58.84          46.269         0              0              0              874.98057      4526.134     
     16300   16.3           302.57251     -132452.22      600.69919      160190.01      1.9124232      23879.005      20358.283      18736.298      32542.434     -421.8748      -643.08735     -1073.474       58.84          58.84          46.269         0              0              0              880.37649      4520.7063    
     16400   16.4           303.60326     -132446.6       602.74554      160190.01      1.9124232      22889.879      19831.526      17476.069      31362.043     -328.90366      514.15543     -1063.8495      58.84          58.84          46.269         0              0              0              885.77365      4515.2852    
     16500   16.5           303.49351     -132453.32      602.52765      160190.01      1.9124232      22909.09       19509.519      18051.896      31165.856      865.39727      503.40879     -367.48605      58.84          58.84          46.269         0              0              0              891.17212      4509.871     
     16600   16.6           299.63847     -132461.24      594.87423      160190.01      1.9124232      23883.338      20687.991      18737.611      32224.412     -294.95468      272.72438      1266.1816      58.84          58.84          46.269         0              0              0              896.57019      4504.4551    
     16700   16.7           297.71516     -132454.13      591.05586      160190.01      1.9124232      22436.029      19118.165      17832.596      30357.326     -1118.8343     -335.87795      1209.6387      58.84          58.84          46.269         0              0              0              901.9721       4499.0584    
     16800   16.8           299.56016     -132453.5       594.71875      160190.01      1.9124232      23526.043      20102.858      19496.115      30979.156      112.1035      -111.02423      1168.5616      58.84          58.84          46.269         0              0              0              907.37136      4493.6486    
     16900   16.9           298.39235     -132456.88      592.40029      160190.01      1.9124232      23381.5        19081.371      18592.096      32471.033      1374.3253      304.30494      519.52795      58.84          58.84          46.269         0              0              0              912.77216      4488.2466    
     17000   17             297.74807     -132457.35      591.1212       160190.01      1.9124232      23041.016      19217.79       18900.24       31005.018     -659.1946      -251.07174     -493.45492      58.84          58.84          46.269         0              0              0              918.17147      4482.8372    
     17100   17.1           296.35169     -132454.06      588.34896      160190.01      1.9124232      24820.818      21073.925      20623.374      32765.157     -370.84105     -430.62667      245.54479      58.84          58.84          46.269         0              0              0              923.5724       4477.4358    
     17200   17.2           301.95748     -132459.85      599.47817      160190.01      1.9124232      22348.901      19476.427      16727.892      30842.385      336.79513     -253.89495      493.59768      58.84          58.84          46.269         0              0              0              928.97271      4472.0314    
     17300   17.3           297.96231     -132453.54      591.54654      160190.01      1.9124232      24309.889      21222.28       19484.152      32223.236      183.40025      447.48787      1193.3399      58.84          58.84          46.269         0              0              0              934.37216      4466.623     
     17400   17.4           299.28232     -132463.85      594.16717      160190.01      1.9124232      23370.526      19409.492      19234.975      31467.111     -756.7597       650.37834      1328.2357      58.84          58.84          46.269         0              0              0              939.77117      4461.2125    
     17500   17.5           297.27717     -132457.89      590.18631      160190.01      1.9124232      25487.481      20730.208      21560.299      34171.936      69.171542      790.36927      1152.2508      58.84          58.84          46.269         0              0              0              945.17075      4455.8049    
     17600   17.6           299.77897     -132458.75      595.15317      160190.01      1.9124232      23448.942      20306.583      18908.536      31131.708      941.16165      533.84579     -987.84979      58.84          58.84          46.269         0              0              0              950.57147      4450.4028    
     17700   17.7           299.49135     -132457.27      594.58215      160190.01      1.9124232      23060.434      20126.658      17586.608      31468.038     -6.5158468      132.19121     -1092.5737      58.84          58.84          46.269         0              0              0              955.97136      4444.9968    
     17800   17.8           299.52853     -132461.1       594.65596      160190.01      1.9124232      23755.418      20406.582      18690.03       32169.643     -1421.7402      25.274538     -1174.9814      58.84          58.84          46.269         0              0              0              961.37062      4439.5879    
     17900   17.9           302.72483     -132463.04      601.0016       160190.01      1.9124232      23950.797      20670.987      19728.604      31452.802      341.54799      117.75165     -258.17228      58.84          58.84          46.269         0              0              0              966.77319      4434.1944    
     18000   18             303.4743      -132457.44      602.48952      160190.01      1.9124232      24956.731      20783.325      21340.455      32746.413      1376.3415      339.03924     -525.82162      58.84          58.84          46.269         0              0              0              972.17318      4428.7889    
     18100   18.1           298.91253     -132453.94      593.43301      160190.01      1.9124232      22896.286      19337.989      19046.169      30304.699     -412.24262      253.18666      577.22829      58.84          58.84          46.269         0              0              0              977.57226      4423.3795    
     18200   18.2           299.79806     -132457.57      595.19105      160190.01      1.9124232      24025.533      20587.74       18680.277      32808.581     -106.21299      693.81093     -536.87578      58.84          58.84          46.269         0              0              0              982.97065      4417.967     
     18300   18.3           300.37288     -132455.54      596.33226      160190.01      1.9124232      23875.032      20399.366      19102.134      32123.596      683.23722      1269.329      -105.01264      58.84          58.84          46.269         0              0              0              988.37142      4412.5653    
     18400   18.4           300.0909      -132458.14      595.77242      160190.01      1.9124232      23470.304      18955.143      19166.496      32289.275      948.58714      746.18623      583.86163      58.84          58.84          46.269         0              0              0              993.77109      4407.1587    
     18500   18.5           298.82178     -132457.41      593.25284      160190.01      1.9124232      23451.182      18528.541      19541.13       32283.875      40.564224      71.265053     -0.73765175     58.84          58.84          46.269         0              0              0              999.17162      4401.756     
     18600   18.6           300.1016      -132456.49      595.79367      160190.01      1.9124232      23036.476      18993.488      18946.399      31169.542     -650.95777      1151.8697      426.98254      58.84          58.84          46.269         0              0              0              1004.5715      4396.3503    
     18700   18.7           299.26934     -132468.2       594.14139      160190.01      1.9124232      22874.675      19342.138      17792.201      31489.684      478.39643      811.75388     -887.63713      58.84          58.84          46.269         0              0              0              1009.9743      4390.9576    
     18800   18.8           296.23619     -132461.19      588.11965      160190.01      1.9124232      23456.299      19714.417      19209.912      31444.568     -127.708       -57.157253     -797.26683      58.84          58.84          46.269         0              0              0              1015.3712      4385.5395    
     18900   18.9           296.58547     -132458.94      588.81308      160190.01      1.9124232      23281.447      19104.526      20268.147      30471.669      682.85827      605.4359      -703.05374      58.84          58.84          46.269         0              0              0              1020.7725      4380.1401    
     19000   19             298.17837     -132461.54      591.97547      160190.01      1.9124232      23642.386      18074.903      20103.579      32748.674      85.151378     -105.16391      209.41956      58.84          58.84          46.269         0              0              0              1026.1728      4374.7366    
     19100   19.1           295.62876     -132459.48      586.91371      160190.01      1.9124232      23249.538      17988.99       20241.07       31518.555     -819.42474      176.25578      200.84697      58.84          58.84          46.269         0              0              0              1031.5743      4369.3382    
     19200   19.2           297.67935     -132460.24      590.98476      160190.01      1.9124232      22583.594      19451.305      18884.335      29415.143      544.91473     -321.71204     -809.6965       58.84          58.84          46.269         0              0              0              1036.9714      4363.9211    
     19300   19.3           299.20844     -132458.45      594.02049      160190.01      1.9124232      24623.829      21234.205      19409.626      33227.656      1665.2695      388.12748     -912.15267      58.84          58.84          46.269         0              0              0              1042.3715      4358.517     
     19400   19.4           296.11052     -132456.34      587.87016      160190.01      1.9124232      21706.687      17221.519      16242.663      31655.878      508.32072     -9.8443481      168.52535      58.84          58.84          46.269         0              0              0              1047.7708      4353.1094    
     19500   19.5           301.35946     -132461.44      598.29091      160190.01      1.9124232      24485.983      21016.355      20044.498      32397.095     -598.71469      161.60885      280.15274      58.84          58.84          46.269         0              0              0              1053.1712      4347.7069    
     19600   19.6           301.50203     -132455.4       598.57397      160190.01      1.9124232      23394.781      19942.593      20506.901      29734.85       266.81967     -524.95475      222.54677      58.84          58.84          46.269         0              0              0              1058.5701      4342.2977    
     19700   19.7           300.23784     -132454.95      596.06416      160190.01      1.9124232      23267.56       18412.4        19540.698      31849.581      1025.0892      587.63064      605.04643      58.84          58.84          46.269         0              0              0              1063.9667      4336.8796    
     19800   19.8           299.78522     -132444.66      595.16557      160190.01      1.9124232      24302.628      20973.782      18749.926      33184.176      333.49301      345.96362      352.8152       58.84          58.84          46.269         0              0              0              1069.3618      4331.4552    
     19900   19.9           303.29351     -132455.13      602.1306       160190.01      1.9124232      22496.162      19352.113      17993.247      30143.124     -253.02522     -91.374353      620.9255       58.84          58.84          46.269         0              0              0              1074.7598      4326.0432    
     20000   20             302.90829     -132454.8       601.36581      160190.01      1.9124232      25215.294      22050.419      21641.294      31954.168      1502.6329     -687.1893       686.83953      58.84          58.84          46.269         0              0              0              1080.1589      4320.6357    
     20100   20.1           299.31055     -132452.86      594.2232       160190.01      1.9124232      22811.89       18127.173      18975.113      31333.385     -24.119917     -1045.3403      967.3991       58.84          58.84          46.269         0              0              0              1085.5594      4315.2335    
     20200   20.2           298.91722     -132458.38      593.44231      160190.01      1.9124232      23778.132      19504.835      19359.349      32470.213     -523.32646      543.31369     -482.94862      58.84          58.84          46.269         0              0              0              1090.9607      4309.8349    
     20300   20.3           299.35699     -132454.92      594.31539      160190.01      1.9124232      23885.772      20925.632      19153.103      31578.581     -93.989134      731.05459      148.6114       58.84          58.84          46.269         0              0              0              1096.3732      4304.4798    
     20400   20.4           300.56796     -132455.71      596.71955      160190.01      1.9124232      22536.823      19087.35       18105.753      30417.366      93.47975       647.74357      540.29586      58.84          58.84          46.269         0              0              0              1101.7713      4299.0682    
     20500   20.5           300.00236     -132451.42      595.59666      160190.01      1.9124232      25083.79       20872.272      20747.006      33632.092     -87.775195      667.4366       375.81717      58.84          58.84          46.269         0              0              0              1107.1815      4293.704     
     20600   20.6           299.68523     -132453.96      594.96706      160190.01      1.9124232      21495.68       18006.704      17280.818      29199.519      375.98792     -211.27576      862.5822       58.84          58.84          46.269         0              0              0              1112.577       4288.2823    
     20700   20.7           299.81394     -132454.51      595.22258      160190.01      1.9124232      24704.318      22194.584      20075.153      31843.217      605.16582     -958.30194      678.53344      58.84          58.84          46.269         0              0              0              1117.9881      4282.9208    
     20800   20.8           297.88197     -132449.72      591.38703      160190.01      1.9124232      22591.798      19716.825      17204.818      30853.753      936.37204      141.93037      177.10429      58.84          58.84          46.269         0              0              0              1123.3862      4277.5091    
     20900   20.9           300.31483     -132458.08      596.217        160190.01      1.9124232      23504.952      19497.31       19140.781      31876.764      243.53694      295.00581      270.27525      58.84          58.84          46.269         0              0              0              1128.7955      4272.1397    
     21000   21             297.20887     -132457.99      590.05072      160190.01      1.9124232      23563.725      19115.896      20646.526      30928.753     -383.11681      13.52281       556.42299      58.84          58.84          46.269         0              0              0              1134.1905      4266.7165    
     21100   21.1           298.32558     -132457.66      592.26774      160190.01      1.9124232      23449.432      18559.399      20774.708      31014.19       653.95908      272.5652       522.9778       58.84          58.84          46.269         0              0              0              1139.6017      4261.3544    
     21200   21.2           297.81505     -132453.1       591.25417      160190.01      1.9124232      23392.149      19227.08       18544.672      32404.694      554.26197     -428.32644     -439.96644      58.84          58.84          46.269         0              0              0              1145.0008      4255.9464    
     21300   21.3           299.17943     -132452.24      593.96289      160190.01      1.9124232      22606.104      20232.285      16975.425      30610.601      107.10556     -683.66365      454.27162      58.84          58.84          46.269         0              0              0              1150.4157      4250.5971    
     21400   21.4           301.8209      -132457.36      599.20701      160190.01      1.9124232      23412.766      20614.766      19223.979      30399.554     -573.77297     -1419.9193      772.70222      58.84          58.84          46.269         0              0              0              1155.8128      4245.1814    
     21500   21.5           303.02646     -132459.72      601.60042      160190.01      1.9124232      23097.994      18856.248      19641.602      30796.132     -420.89197     -2059.3206      830.61319      58.84          58.84          46.269         0              0              0              1161.2269      4239.8286    
     21600   21.6           297.60689     -132451.31      590.84092      160190.01      1.9124232      23202.518      19176.791      18099.063      32331.699      285.65731     -861.15505      497.48874      58.84          58.84          46.269         0              0              0              1166.6218      4234.4052    
     21700   21.7           300.17884     -132450.93      595.94701      160190.01      1.9124232      23634.975      19509.123      19390.138      32005.665      258.93486      763.13636     -874.91381      58.84          58.84          46.269         0              0              0              1172.0314      4229.0351    
     21800   21.8           296.38307     -132454.7       588.41126      160190.01      1.9124232      23037.676      19257.439      19913.401      29942.187      373.10728      1349.5497     -385.64844      58.84          58.84          46.269         0              0              0              1177.4321      4223.6324    
     21900   21.9           300.01985     -132458.59      595.63138      160190.01      1.9124232      23543.883      17874.397      19836.033      32921.219      215.69806      528.88624     -686.11984      58.84          58.84          46.269         0              0              0              1182.8469      4218.2806    
     22000   22             299.38877     -132453.77      594.3785       160190.01      1.9124232      23328.848      19023.945      18698.97       32263.63       90.004731      508.30691     -68.016174      58.84          58.84          46.269         0              0              0              1188.2425      4212.8598    
     22100   22.1           298.98416     -132452.74      593.57521      160190.01      1.9124232      24617.104      21209.424      20010.551      32631.337     -1165.9665     -598.78086     -110.64956      58.84          58.84          46.269         0              0              0              1193.6569      4207.5055    
     22200   22.2           297.65501     -132448.98      590.93645      160190.01      1.9124232      23118.003      18714.411      19218.166      31421.434     -102.54067      201.10372      673.90116      58.84          58.84          46.269         0              0              0              1199.0546      4202.0924    
     22300   22.3           299.53625     -132451.8       594.67129      160190.01      1.9124232      23079.437      19015.031      18644.668      31578.612      456.02883      269.98283      416.97668      58.84          58.84          46.269         0              0              0              1204.4649      4196.7231    
     22400   22.4           301.82868     -132457.26      599.22246      160190.01      1.9124232      23238.969      19619.656      17853.887      32243.364      478.7947       288.8689      -35.514461      58.84          58.84          46.269         0              0              0              1209.8608      4191.3035    
     22500   22.5           298.98201     -132456.26      593.57094      160190.01      1.9124232      24424.193      20341.357      20793.08       32138.14      -780.09862      1026.5085      411.6405       58.84          58.84          46.269         0              0              0              1215.2723      4185.938     
     22600   22.6           299.48077     -132456.94      594.56114      160190.01      1.9124232      23074.362      18294.63       20089.127      30839.328     -592.79639     -632.14508     -36.075821      58.84          58.84          46.269         0              0              0              1220.6679      4180.5175    
     22700   22.7           299.85215     -132448.95      595.29844      160190.01      1.9124232      24370.89       19492.719      20512.993      33106.958     -13.69142      -866.16122     -53.535921      58.84          58.84          46.269         0              0              0              1226.0812      4175.1576    
     22800   22.8           298.79552     -132444.31      593.20071      160190.01      1.9124232      23457.437      19118.918      19391.401      31861.993      280.87074      259.23598      204.38188      58.84          58.84          46.269         0              0              0              1231.4792      4169.7453    
     22900   22.9           301.87493     -132450.63      599.31427      160190.01      1.9124232      22955.14       19194.439      18526.193      31144.789      262.58601      782.47202     -48.116215      58.84          58.84          46.269         0              0              0              1236.8916      4164.3817    
     23000   23             298.38203     -132455.22      592.37981      160190.01      1.9124232      23358.405      19626.889      18730.304      31718.023     -554.47073      274.23455      259.61661      58.84          58.84          46.269         0              0              0              1242.2912      4158.9749    
[...]
    194400   194.4          297.91437     -132460.08      591.45136      160190.01      1.9124232      23393.574      20899.245      19143.644      30137.832     -765.04163     -983.55954     -966.10598      58.84          58.84          46.269         0              0              0              5039.3584      298.94499    
    194500   194.5          297.92254     -132460         591.46757      160190.01      1.9124232      21625.515      18916.309      17815.984      28144.253     -512.38359     -920.33256     -1226.6876      58.84          58.84          46.269         0              0              0              5044.6993      293.60684    
    194600   194.6          301.08588     -132466.41      597.74778      160190.01      1.9124232      24298.552      20117.886      21247.82       31529.949      23.180249     -1392.9934     -207.42073      58.84          58.84          46.269         0              0              0              5050.0356      288.26842    
    194700   194.7          302.06416     -132468.27      599.68996      160190.01      1.9124232      22631.342      19272.659      19802.978      28818.389     -145.38335     -233.41959     -450.33052      58.84          58.84          46.269         0              0              0              5055.3802      282.93047    
    194800   194.8          299.6095      -132463.36      594.81671      160190.01      1.9124232      23868.442      21247.182      20841.945      29516.199     -909.45355     -18.083148     -22.684101      58.84          58.84          46.269         0              0              0              5060.723       277.5924     
    194900   194.9          300.5339      -132465.27      596.65193      160190.01      1.9124232      21672.388      19133.695      17678.594      28204.875      333.83439     -338.66525     -268.68567      58.84          58.84          46.269         0              0              0              5066.0637      272.25422    
    195000   195            299.42609     -132463         594.45258      160190.01      1.9124232      23094.982      20821.025      19236.15       29227.771      586.47807     -239.67048      158.72155      58.84          58.84          46.269         0              0              0              5071.402       266.9159     
    195100   195.1          299.58385     -132463.38      594.76579      160190.01      1.9124232      24125.588      21514.235      20894.497      29968.03      -374.54604     -389.3389      -353.19338      58.84          58.84          46.269         0              0              0              5076.7449      261.57781    
    195200   195.2          298.80678     -132461.79      593.22307      160190.01      1.9124232      22312.477      17989.309      19156.478      29791.644     -375.32102     -976.26889      321.31963      58.84          58.84          46.269         0              0              0              5082.0823      256.23944    
    195300   195.3          299.34115     -132462.83      594.28395      160190.01      1.9124232      23668.651      21131.912      20401.115      29472.927      150.96467      176.41365     -399.18819      58.84          58.84          46.269         0              0              0              5087.4242      250.9013     
    195400   195.4          300.1736      -132464.53      595.93662      160190.01      1.9124232      23494.842      21317.063      20289.639      28877.823     -456.8827       1344.7965     -635.08922      58.84          58.84          46.269         0              0              0              5092.765       245.56309    
    195500   195.5          299.41893     -132463.04      594.43838      160190.01      1.9124232      21922.711      18085.664      18656.785      29025.684     -53.040423     -323.10382     -851.57599      58.84          58.84          46.269         0              0              0              5098.106       240.22489    
    195600   195.6          300.72776     -132465.62      597.0368       160190.01      1.9124232      23627.426      20187.859      19807.147      30887.272     -456.38439     -589.1657      -1002.8772      58.84          58.84          46.269         0              0              0              5103.4458      234.88663    
    195700   195.7          300.8241      -132465.74      597.22806      160190.01      1.9124232      22832.363      20516.419      19699.966      28280.703     -195.27013      133.43933      190.14046      58.84          58.84          46.269         0              0              0              5108.7873      229.54844    
    195800   195.8          298.90902     -132462.04      593.42603      160190.01      1.9124232      22599.863      20659.556      18302.979      28837.054      266.39397      588.72663      857.18112      58.84          58.84          46.269         0              0              0              5114.1268      224.21015    
    195900   195.9          301.58391     -132467.37      598.73651      160190.01      1.9124232      23754.075      20657.85       20242.224      30362.151     -853.58299      297.43035      360.41528      58.84          58.84          46.269         0              0              0              5119.4673      218.87191    
    196000   196            300.62019     -132465.4       596.82324      160190.01      1.9124232      22245.826      19368.234      18716.109      28653.135     -876.33454      667.03223     -257.27367      58.84          58.84          46.269         0              0              0              5124.8097      213.53374    
    196100   196.1          297.98118     -132460.16      591.584        160190.01      1.9124232      24455.904      21804.91       21312.783      30250.019     -34.981175      1234.9668     -262.11883      58.84          58.84          46.269         0              0              0              5130.1478      208.19538    
    196200   196.2          300.0734      -132464.32      595.7377       160190.01      1.9124232      22663.453      19879.229      19242.572      28868.557      369.21594      548.88776     -606.85321      58.84          58.84          46.269         0              0              0              5135.4873      202.85709    
    196300   196.3          299.60886     -132463.36      594.81544      160190.01      1.9124232      23854.6        21381.849      19998.248      30183.702     -774.78072     -514.31103     -700.62628      58.84          58.84          46.269         0              0              0              5140.8305      197.51893    
    196400   196.4          301.58274     -132467.4       598.73419      160190.01      1.9124232      22863.224      20602.264      19101.317      28886.092     -84.542954     -976.45415     -519.29234      58.84          58.84          46.269         0              0              0              5146.172       192.1807     
    196500   196.5          300.19362     -132464.55      595.97636      160190.01      1.9124232      22988.41       19616.003      20062.887      29286.34      -351.68919      349.57992     -1535.1604      58.84          58.84          46.269         0              0              0              5151.5145      186.84249    
    196600   196.6          300.22963     -132464.62      596.04786      160190.01      1.9124232      23277.817      19008.453      19987.636      30837.361     -304.29763      987.57024     -1092.5821      58.84          58.84          46.269         0              0              0              5156.8534      181.50416    
    196700   196.7          298.43612     -132461.05      592.48719      160190.01      1.9124232      23249.604      20431.385      20651.818      28665.609      38.651779     -143.26762     -849.55484      58.84          58.84          46.269         0              0              0              5162.1931      176.16585    
    196800   196.8          299.71911     -132463.63      595.03432      160190.01      1.9124232      23172.11       20248.694      20479.05       28788.587      649.0679       82.846751     -831.90833      58.84          58.84          46.269         0              0              0              5167.5307      170.82746    
    196900   196.9          300.6627      -132465.53      596.90763      160190.01      1.9124232      22538.131      18798.938      19920.061      28895.394     -119.39816     -554.4246      -50.07415       58.84          58.84          46.269         0              0              0              5172.8695      165.48912    
    197000   197            300.55967     -132465.32      596.70309      160190.01      1.9124232      23831.723      19737.017      21156.742      30601.411     -606.34664     -552.57663     -278.09729      58.84          58.84          46.269         0              0              0              5178.2056      160.15069    
    197100   197.1          298.00505     -132460.23      591.63139      160190.01      1.9124232      22663.721      20192.319      19998.205      27800.64      -197.40663     -1346.2087     -567.31731      58.84          58.84          46.269         0              0              0              5183.5468      154.81242    
    197200   197.2          302.15978     -132468.49      599.87979      160190.01      1.9124232      22269.647      19153.841      19886.326      27768.776      556.29251     -1725.0944     -295.10491      58.84          58.84          46.269         0              0              0              5188.8834      149.47401    
    197300   197.3          299.73432     -132463.6       595.06452      160190.01      1.9124232      23737.232      20751.803      19878.692      30581.2       -623.46393      101.89573     -1247.488       58.84          58.84          46.269         0              0              0              5194.2297      144.13587    
    197400   197.4          300.75007     -132465.65      597.0811       160190.01      1.9124232      22715.713      19755.687      18419.961      29971.49      -882.38809      376.22616     -1309.851       58.84          58.84          46.269         0              0              0              5199.5659      138.79745    
    197500   197.5          301.02802     -132466.25      597.6329       160190.01      1.9124232      22832.499      20061.898      20118.236      28317.363     -221.02715      308.45333     -818.50248      58.84          58.84          46.269         0              0              0              5204.9068      133.45915    
    197600   197.6          297.8997      -132460         591.42224      160190.01      1.9124232      22854.831      18467.351      20420.64       29676.501      217.29203     -1586.7287     -896.85926      58.84          58.84          46.269         0              0              0              5210.2454      128.12079    
    197700   197.7          301.09689     -132466.38      597.76963      160190.01      1.9124232      22787.591      19196.326      19641.765      29524.682      130.87095     -1430.984      -1141.6683      58.84          58.84          46.269         0              0              0              5215.5866      122.78249    
    197800   197.8          301.21338     -132466.5       598.00091      160190.01      1.9124232      23344.683      21390.549      19965.703      28677.798     -351.12132     -1254.4202     -1826.4161      58.84          58.84          46.269         0              0              0              5220.9233      117.44408    
    197900   197.9          298.97164     -132462.15      593.55036      160190.01      1.9124232      22861.96       19950.65       19626.188      29009.041     -320.05655     -1566.4796     -1101.0304      58.84          58.84          46.269         0              0              0              5226.2623      112.10573    
    198000   198            301.31572     -132466.83      598.20407      160190.01      1.9124232      23685.926      20739.09       20165.722      30152.967     -273.97667     -187.45039     -927.38813      58.84          58.84          46.269         0              0              0              5231.6006      106.76736    
    198100   198.1          299.43675     -132462.98      594.47375      160190.01      1.9124232      22251.41       19459.89       18840.877      28453.462      304.96936     -707.23185     -1011.7986      58.84          58.84          46.269         0              0              0              5236.9424      101.42906    
    198200   198.2          301.58854     -132467.25      598.7457       160190.01      1.9124232      23231.403      21426.99       19314.697      28952.523      208.26241     -362.25242     -102.0317       58.84          58.84          46.269         0              0              0              5242.2828      96.090723    
    198300   198.3          301.57301     -132467.33      598.71487      160190.01      1.9124232      22910.141      20639.777      19534          28556.645     -1813.0865     -1492.1108      866.98984      58.84          58.84          46.269         0              0              0              5247.6218      90.75236     
    198400   198.4          299.94176     -132464.09      595.47635      160190.01      1.9124232      22402.782      18348.134      19292.151      29568.06      -389.02211     -844.85131      831.02844      58.84          58.84          46.269         0              0              0              5252.9599      85.413982    
    198500   198.5          300.86282     -132466.01      597.30493      160190.01      1.9124232      22727.174      19222.243      20070.171      28889.108      797.36849      97.873394     -119.77761      58.84          58.84          46.269         0              0              0              5258.2989      80.075618    
    198600   198.6          300.79726     -132465.72      597.17477      160190.01      1.9124232      23463.934      20087.765      20893.723      29410.315      490.63146      191.16493     -238.03256      58.84          58.84          46.269         0              0              0              5263.6394      74.737274    
    198700   198.7          302.07375     -132468.3       599.709        160190.01      1.9124232      23521.257      20976.399      20089.411      29497.963      418.02685      451.06898     -437.83181      58.84          58.84          46.269         0              0              0              5268.9824      69.398958    
    198800   198.8          299.15589     -132462.52      593.91616      160190.01      1.9124232      22388.402      19528.413      19406.236      28230.558     -388.72585      151.65659     -236.66871      58.84          58.84          46.269         0              0              0              5274.3206      64.060575    
    198900   198.9          300.57413     -132465.27      596.7318       160190.01      1.9124232      21918.541      19529.438      17718.544      28507.642      129.40552     -214.53173     -1408.2736      58.84          58.84          46.269         0              0              0              5279.6608      58.722213    
    199000   199            298.23978     -132460.64      592.09739      160190.01      1.9124232      22696.765      20724.273      18461.718      28904.303     -167.36781     -163.79007     -792.51842      58.84          58.84          46.269         0              0              0              5285.0006      53.383845    
    199100   199.1          299.24834     -132462.63      594.0997       160190.01      1.9124232      23408.874      20313.261      21016.047      28897.316     -833.50391     -699.54871      1054.4157      58.84          58.84          46.269         0              0              0              5290.3431      48.045498    
    199200   199.2          300.20197     -132464.55      595.99294      160190.01      1.9124232      21600.395      17656.794      19837.994      27306.397      891.30282     -599.96095     -261.76017      58.84          58.84          46.269         0              0              0              5295.6774      42.707076    
    199300   199.3          299.23499     -132462.62      594.07319      160190.01      1.9124232      24420.634      20648.648      21470.848      31142.405      621.05929     -554.77956     -698.6517       58.84          58.84          46.269         0              0              0              5301.0196      37.368718    
    199400   199.4          299.29481     -132462.67      594.19195      160190.01      1.9124232      21656.47       19377.415      17029.276      28562.719     -608.06229      424.16595      206.64297      58.84          58.84          46.269         0              0              0              5306.3591      32.030337    
    199500   199.5          300.93268     -132466.05      597.44362      160190.01      1.9124232      23292.595      21365.474      20408.719      28103.592     -118.79191     -617.13396      424.54588      58.84          58.84          46.269         0              0              0              5311.6929      26.691924    
    199600   199.6          300.20096     -132464.52      595.99093      160190.01      1.9124232      22888.845      19153.57       20125.555      29387.41       336.39137     -371.95567     -669.03779      58.84          58.84          46.269         0              0              0              5317.0325      21.353544    
    199700   199.7          301.35064     -132466.88      598.27341      160190.01      1.9124232      22672.624      19754.47       18712.288      29551.115      729.59486     -416.03398     -1350.4983      58.84          58.84          46.269         0              0              0              5322.3735      16.015166    
    199800   199.8          300.76942     -132465.73      597.1195       160190.01      1.9124232      23159.954      21717.41       19723.623      28038.828     -367.54354     -1308.8675     -1716.2479      58.84          58.84          46.269         0              0              0              5327.7123      10.676778    
    199900   199.9          302.21903     -132468.64      599.99743      160190.01      1.9124232      22310.513      19825.581      19191.318      27914.64      -450.90333     -1371.8351     -208.27339      58.84          58.84          46.269         0              0              0              5333.0552      5.3383936    
    200000   200            300.04437     -132464.22      595.68006      160190.01      1.9124232      21949.418      18616.092      18921.288      28310.874     -157.2407      -1087.1946     -28.233813      58.84          58.84          46.269         0              0              0              5338.3929      0            
Loop time of 5338.39 on 1 procs for 100000 steps with 15360 atoms

Performance: 1.618 ns/day, 14.829 hours/ns, 18.732 timesteps/s, 287.727 katom-step/s
100.4% CPU use with 1 MPI tasks x 1 OpenMP threads

MPI task timing breakdown:
Section |  min time  |  avg time  |  max time  |%varavg| %total
---------------------------------------------------------------
Pair    | 5228.1     | 5228.1     | 5228.1     |   0.0 | 97.93
Neigh   | 0.0079014  | 0.0079014  | 0.0079014  |   0.0 |  0.00
Comm    | 96.668     | 96.668     | 96.668     |   0.0 |  1.81
Output  | 0.30701    | 0.30701    | 0.30701    |   0.0 |  0.01
Modify  | 6.8152     | 6.8152     | 6.8152     |   0.0 |  0.13
Other   |            | 6.487      |            |       |  0.12

Nlocal:          15360 ave       15360 max       15360 min
Histogram: 1 0 0 0 0 0 0 0 0 0
Nghost:          17835 ave       17835 max       17835 min
Histogram: 1 0 0 0 0 0 0 0 0 0
Neighs:    1.55811e+06 ave 1.55811e+06 max 1.55811e+06 min
Histogram: 1 0 0 0 0 0 0 0 0 0
FullNghs:  3.11621e+06 ave 3.11621e+06 max 3.11621e+06 min
Histogram: 1 0 0 0 0 0 0 0 0 0

Total # of neighbors = 3116212
Ave neighs/atom = 202.87839
Neighbor list builds = 8
Dangerous builds = 0


Total wall time: 2:59:15
